
#(C) 2019 by FIZ Karlsruhe - Leibniz Institute for Information Infrastructure.  All rights reserved.
data_62404-ICSD
_database_code_ICSD 62404
_audit_creation_date 1988-12-19
_audit_update_record 2012-08-01
_chemical_name_systematic 'Silicon oxide - alpha'
_chemical_formula_structural 'Si O2'
_chemical_formula_sum 'O2 Si1'
_chemical_name_structure_type Quartz,low
_chemical_name_mineral 'Quartz low'
_exptl_crystal_density_diffrn 2.64
_cell_measurement_temperature 488.
_cell_measurement_pressure 110000.
_publ_section_title
'Structure of alpha-quartz as a function of temperature and pressure'
loop_
_citation_id
_citation_journal_full
_citation_year
_citation_journal_volume
_citation_page_first
_citation_page_last
_citation_journal_id_ASTM
primary 'Zeitschrift fuer Kristallographie' 1987 179 403 413 ZEKRDZ
loop_
_publ_author_name
'Ogata, K.'
'Takeuchi, Y.'
'Kudoh, Y.'
_cell_length_a 4.9192(3)
_cell_length_b 4.9192(3)
_cell_length_c 5.4050(4)
_cell_angle_alpha 90.
_cell_angle_beta 90.
_cell_angle_gamma 120.
_cell_volume 113.27
_cell_formula_units_Z 3
_symmetry_space_group_name_H-M 'P 32 2 1'
_symmetry_Int_Tables_number 154
_refine_ls_R_factor_all 0.023
loop_
_symmetry_equiv_pos_site_id
_symmetry_equiv_pos_as_xyz
1 '-x, -x+y, -z+2/3'
2 'x-y, -y, -z+1/3'
3 'y, x, -z'
4 '-x+y, -x, z+1/3'
5 '-y, x-y, z+2/3'
6 'x, y, z'
loop_
_atom_type_symbol
_atom_type_oxidation_number
Si4+ 4
O2- -2
loop_
_atom_site_label
_atom_site_type_symbol
_atom_site_symmetry_multiplicity
_atom_site_Wyckoff_symbol
_atom_site_fract_x
_atom_site_fract_y
_atom_site_fract_z
_atom_site_B_iso_or_equiv
_atom_site_occupancy
_atom_site_attached_hydrogens
Si1 Si4+ 3 a 0.4723(3) 0 0.6667 0.793 1. 0
O1 O2- 6 c 0.4160(8) 0.2658(7) 0.7881(4) 1.479 1. 0
loop_
_atom_site_aniso_label
_atom_site_aniso_type_symbol
_atom_site_aniso_B_11
_atom_site_aniso_B_22
_atom_site_aniso_B_33
_atom_site_aniso_B_12
_atom_site_aniso_B_13
_atom_site_aniso_B_23
Si1 Si4+ 0.75(9) 0.95(9) 0.63(3) 0.475(45) -.02(5) -.44(10)
O1 O2- 2.6(2) 2.0(2) 1.24(8) 1.6(1) -.3(1) -.50(9)
#End of TTdata_62404-ICSD