
#(C) 2019 by FIZ Karlsruhe - Leibniz Institute for Information Infrastructure.  All rights reserved.
data_1109-ICSD
_database_code_ICSD 1109
_audit_creation_date 1980-01-01
_audit_update_record 2012-08-01
_chemical_name_systematic 'Silicon oxide - HT'
_chemical_formula_structural 'Si O2'
_chemical_formula_sum 'O2 Si1'
_chemical_name_structure_type SiO2(mS144)
_chemical_name_mineral 'Tridymite low'
_exptl_crystal_density_diffrn 2.27
_publ_section_title

;
Silicon-oxygen bond lenghts, bridging angles Si-O-Si and synthetic low
tridymite
;
loop_
_citation_id
_citation_journal_full
_citation_year
_citation_journal_volume
_citation_page_first
_citation_page_last
_citation_journal_id_ASTM
primary

;
Acta Crystallographica, Section B: Structural Crystallography and Crystal
Chemistry
; 1977 33 2615 2619 ACBCAR
loop_
_publ_author_name
'Baur, W.H.'
_cell_length_a 18.4940(80)
_cell_length_b 4.991(2)
_cell_length_c 23.758(8)
_cell_angle_alpha 90.
_cell_angle_beta 105.79(2)
_cell_angle_gamma 90.
_cell_volume 2110.2
_cell_formula_units_Z 48
_symmetry_space_group_name_H-M 'C 1 c 1'
_symmetry_Int_Tables_number 9
_refine_ls_R_factor_all 0.076
loop_
_symmetry_equiv_pos_site_id
_symmetry_equiv_pos_as_xyz
1 'x, -y, z+1/2'
2 'x, y, z'
3 'x+1/2, -y+1/2, z+1/2'
4 'x+1/2, y+1/2, z'
loop_
_atom_type_symbol
_atom_type_oxidation_number
Si4+ 4
O2- -2
loop_
_atom_site_label
_atom_site_type_symbol
_atom_site_symmetry_multiplicity
_atom_site_Wyckoff_symbol
_atom_site_fract_x
_atom_site_fract_y
_atom_site_fract_z
_atom_site_B_iso_or_equiv
_atom_site_occupancy
_atom_site_attached_hydrogens
Si1 Si4+ 4 a 0.5477(2) 0.5433(7) 0.5653(2) . 1. 0
Si2 Si4+ 4 a 0.7003(2) 0.9458(7) 0.7381(2) . 1. 0
Si3 Si4+ 4 a 0.4171(2) 0.5508(7) 0.6236(2) . 1. 0
Si4 Si4+ 4 a 0.5724(2) 0.0464(7) 0.7977(2) . 1. 0
Si5 Si4+ 4 a 0.9219(2) 0.5503(7) 0.6987(2) . 1. 0
Si6 Si4+ 4 a 0.7622(2) 0.9414(7) 0.5393(2) . 1. 0
Si7 Si4+ 4 a 0.7997(2) 0.4474(7) 0.7670(2) . 1. 0
Si8 Si4+ 4 a 0.6428(2) 0.0393(7) 0.6042(2) . 1. 0
Si9 Si4+ 4 a 0.8493(2) 0.4614(7) 0.9030(2) . 1. 0
Si10 Si4+ 4 a 0.9454(2) 0.9637(7) 0.9375(2) . 1. 0
Si11 Si4+ 4 a 0.7216 0.5607(7) 0.9618 . 1. 0
Si12 Si4+ 4 a 0.5663(2) 0.5457(7) 0.8716(2) . 1. 0
O1 O2- 4 a 0.5723(6) 0.3471(18) 0.8204(4) . 1. 0
O2 O2- 4 a 0.5665(5) 0.8457(15) 0.8494(4) . 1. 0
O3 O2- 4 a 0.7297(5) 0.1394(16) 0.4864(3) . 1. 0
O4 O2- 4 a 0.7488(5) 0.6415(16) 0.5160(4) . 1. 0
O5 O2- 4 a 0.4133(6) 0.3504(16) 0.6752(4) . 1. 0
O6 O2- 4 a 0.4096(5) 0.8505(16) 0.6444(3) . 1. 0
O7 O2- 4 a 0.8748(4) 0.1625(16) 0.9225(4) . 1. 0
O8 O2- 4 a 0.9130(5) 0.6633(16) 0.9375(3) . 1. 0
O9 O2- 4 a 0.7714(5) 0.1484(18) 0.7566(4) . 1. 0
O10 O2- 4 a 0.7302(5) 0.6442(16) 0.7437(4) . 1. 0
O11 O2- 4 a 0.6177(4) 0.3391(14) 0.5856(3) . 1. 0
O12 O2- 4 a 0.5789(5) 0.8410(16) 0.5670(3) . 1. 0
O13 O2- 4 a 0.4958(4) 0.5109(18) 0.6083(3) . 1. 0
O14 O2- 4 a 0.3506(4) 0.4920(17) 0.5653(3) . 1. 0
O15 O2- 4 a 0.6524(5) 0.0009(21) 0.6721(3) . 1. 0
O16 O2- 4 a 0.6490(5) 0.9945(21) 0.7809(3) . 1. 0
O17 O2- 4 a 0.8607(6) 0.4970(22) 0.7324(5) . 1. 0
O18 O2- 4 a 0.8377(6) 0.5008(19) 0.8341(4) . 1. 0
O19 O2- 4 a 0.5040(5) 0.0018(20) 0.7408(4) . 1. 0
O20 O2- 4 a 0.6355(4) 0.4979(18) 0.9279(4) . 1. 0
O21 O2- 4 a 0.9900(5) 0.9898(21) 0.8887(4) . 1. 0
O22 O2- 4 a 0.5003(5) 0.4741(16) 0.4999(4) . 1. 0
O23 O2- 4 a 0.7219(5) 0.9882(17) 0.5902(4) . 1. 0
O24 O2- 4 a 0.7712(5) 0.5206(20) 0.9163(4) . 1. 0
loop_
_atom_site_aniso_label
_atom_site_aniso_type_symbol
_atom_site_aniso_beta_11
_atom_site_aniso_beta_22
_atom_site_aniso_beta_33
_atom_site_aniso_beta_12
_atom_site_aniso_beta_13
_atom_site_aniso_beta_23
Si1 Si4+ 0.0003(1) 0.0087(7) 0.00040(3) 0.0000(2) 0.00010(3) 0.0002(2)
Si2 Si4+ 0.0007(1) 0.0073(8) 0.00040(3) 0.0003(2) 0.00020(3) 0.0007(2)
Si3 Si4+ 0.0006(1) 0.0082(7) 0.00040(3) -.0001(2) 0.00010(3) -.0008(2)
Si4 Si4+ 0.0008(1) 0.0074(7) 0.00030(3) 0.0005(2) 0.00010(3) -.0004(2)
Si5 Si4+ 0.0006(1) 0.0079(8) 0.00030(3) -.0004(2) 0.00010(3) -.0001(2)
Si6 Si4+ 0.0006(1) 0.0077(8) 0.00040(3) -.0001(2) 0.00000(3) -.0005(2)
Si7 Si4+ 0.0007(1) 0.0085(8) 0.00040(3) 0.0000(2) 0.00030(3) 0.0007(2)
Si8 Si4+ 0.0005(1) 0.0076(7) 0.00030(3) 0.0006(2) 0.00010(3) -.0001(2)
Si9 Si4+ 0.0005(1) 0.0094(8) 0.00030(3) -.0002(2) 0.00000(3) 0.0001(2)
Si10 Si4+ 0.0006(1) 0.0072(8) 0.00030(3) -.0005(2) 0.00000(3) 0.0000(2)
Si11 Si4+ 0.0005(1) 0.0054(8) 0.00040(3) 0.0002(2) 0.00000(3) 0.0002(2)
Si12 Si4+ 0.0006(1) 0.0088(8) 0.00030(3) -.0001(2) 0.00020(3) -.0001(2)
O1 O2- 0.0020(3) 0.0137(29) 0.0007(1) 0.0003(7) 0.0005(1) -.0004(5)
O2 O2- 0.0018(2) 0.0041(20) 0.0009(1) 0.0005(5) 0.0007(1) 0.0005(4)
O3 O2- 0.0024(3) 0.0060(23) 0.0005(1) 0.0001(6) 0.0000(1) 0.0003(4)
O4 O2- 0.0013(2) 0.0068(23) 0.0009(1) 0.0003(5) -.0002(1) 0.0000(4)
O5 O2- 0.0025(3) 0.0052(22) 0.0009(1) 0.0001(7) 0.0008(1) -.0004(4)
O6 O2- 0.0016(2) 0.0083(23) 0.0006(1) -.0007(1) 0.0000(1) -.0012(4)
O7 O2- 0.0006(1) 0.0108(25) 0.0009(1) 0.0010(5) 0.0002(1) 0.0010(4)
O8 O2- 0.0014(2) 0.0076(23) 0.0007(1) -.0015(5) 0.0000(1) -.0001(4)
O9 O2- 0.0012(2) 0.0098(26) 0.0014(2) -.0008(6) 0.0002(2) -.0004(6)
O10 O2- 0.0011(2) 0.0062(22) 0.0012(2) -.0002(5) -.0001(1) -.0010(5)
O11 O2- 0.0008(2) 0.0048(20) 0.0006(1) 0.0008(4) -.0001(1) 0.0003(4)
O12 O2- 0.0014(2) 0.0077(24) 0.0010(1) -.0005(6) 0.0001(1) 0.0008(5)
O13 O2- 0.0006(1) 0.0280(46) 0.0008(1) 0.0004(6) 0.0004(1) .0002(5)
O14 O2- 0.0005(1) 0.0251(44) 0.0007(1) -.0010(5) 0.0001(1) -.0020(5)
O15 O2- 0.0010(2) 0.0300(59) 0.0006(1) 0.0021(7) 0.0001(1) 0.0016(5)
O16 O2- 0.0011(2) 0.0348(51) 0.0005(1) 0.0003(7) 0.0004(1) -.0008(5)
O17 O2- 0.0022(3) 0.0311(50) 0.0012(2) -.0028(8) 0.0014(2) -.0011(5)
O18 O2- 0.0020(3) 0.0284(57) 0.0003(1) 0.0008(8) 0.0002(1) 0.0000(5)
O19 O2- 0.0014(2) 0.0250(36) 0.0008(1) 0.0006(7) -.0002(1) -.0009(5)
O20 O2- 0.0004(1) 0.0240(45) 0.0007(1) -.0004(5) -.0001(1) 0.0011(5)
O21 O2- 0.0008(2) 0.0333(52) 0.0005(1) -.0013(6) 0.0001(1) 0.0004(5)
O22 O2- 0.0008(2) 0.0168(24) 0.0004(1) 0.0003(6) -.0002(1) -.0001(5)
O23 O2- 0.0009(2) 0.0199(37) 0.0007(1) 0.0009(5) 0.0002(1) -.0006(4)
O24 O2- 0.0009(2) 0.0256(40) 0.0009(1) 0.0008(6) 0.0006(1) 0.0014(5)
#End of TTdata_1109-ICSD